<PP_INFO>
Generated using Fritz-Haber code                                                
Author: unknown    Generation date: as well                                     
Info: automatically converted from FHI format                                   
    1        The Pseudo was generated with a Scalar-Relativistic Calculation
nl pn  l   occ               Rcut            Rcut US             E pseu
2s  0  0  2.00      0.00000000000      0.00000000000      0.00000000000
2p  0  1  4.00      0.00000000000      0.00000000000      0.00000000000
</PP_INFO>


<PP_HEADER>
   0                   Version Number
  NX                   Element
   NC                  Norm - Conserving pseudopotential
    F                  Nonlinear Core Correction
SLA  PW   PBE  PBE     PBE  Exchange-Correlation functional
    6.00000000000      Z valence
    0.00000000000      Total energy
  0.0000000  0.0000000 Suggested cutoff for wfc and rho
    0                  Max angular momentum component
  467                  Number of points in mesh
    2    1             Number of Wavefunctions, Number of Projectors
 Wavefunctions         nl  l   occ
                       2s  0  2.00
                       2p  1  4.00
</PP_HEADER>


<PP_MESH>
  <PP_R>
  8.92857142857E-04  9.14910714286E-04  9.37509008929E-04  9.60665481449E-04
  9.84393918841E-04  1.00870844864E-03  1.03362354732E-03  1.05915404894E-03
  1.08531515395E-03  1.11212243825E-03  1.13959186247E-03  1.16773978148E-03
  1.19658295408E-03  1.22613855304E-03  1.25642417530E-03  1.28745785243E-03
  1.31925806139E-03  1.35184373550E-03  1.38523427577E-03  1.41944956238E-03
  1.45450996657E-03  1.49043636275E-03  1.52725014091E-03  1.56497321939E-03
  1.60362805791E-03  1.64323767094E-03  1.68382564141E-03  1.72541613475E-03
  1.76803391328E-03  1.81170435094E-03  1.85645344841E-03  1.90230784858E-03
  1.94929485244E-03  1.99744243530E-03  2.04677926345E-03  2.09733471126E-03
  2.14913887863E-03  2.20222260893E-03  2.25661750737E-03  2.31235595980E-03
  2.36947115201E-03  2.42799708946E-03  2.48796861757E-03  2.54942144243E-03
  2.61239215205E-03  2.67691823821E-03  2.74303811869E-03  2.81079116023E-03
  2.88021770188E-03  2.95135907912E-03  3.02425764837E-03  3.09895681229E-03
  3.17550104555E-03  3.25393592138E-03  3.33430813864E-03  3.41666554966E-03
  3.50105718874E-03  3.58753330130E-03  3.67614537384E-03  3.76694616457E-03
  3.85998973484E-03  3.95533148129E-03  4.05302816888E-03  4.15313796465E-03
  4.25572047238E-03  4.36083676804E-03  4.46854943621E-03  4.57892260729E-03
  4.69202199569E-03  4.80791493898E-03  4.92667043797E-03  5.04835919779E-03
  5.17305366998E-03  5.30082809563E-03  5.43175854959E-03  5.56592298576E-03
  5.70340128351E-03  5.84427529521E-03  5.98862889501E-03  6.13654802871E-03
  6.28812076502E-03  6.44343734792E-03  6.60259025041E-03  6.76567422960E-03
  6.93278638307E-03  7.10402620673E-03  7.27949565404E-03  7.45929919669E-03
  7.64354388685E-03  7.83233942085E-03  8.02579820455E-03  8.22403542020E-03
  8.42716909508E-03  8.63532017173E-03  8.84861257997E-03  9.06717331070E-03
  9.29113249147E-03  9.52062346401E-03  9.75578286357E-03  9.99675070030E-03
  1.02436704426E-02  1.04966891025E-02  1.07559573234E-02  1.10216294692E-02
  1.12938637171E-02  1.15728221510E-02  1.18586708581E-02  1.21515800283E-02
  1.24517240550E-02  1.27592816391E-02  1.30744358956E-02  1.33973744622E-02
  1.37282896115E-02  1.40673783649E-02  1.44148426105E-02  1.47708892230E-02
  1.51357301868E-02  1.55095827224E-02  1.58926694156E-02  1.62852183502E-02
  1.66874632434E-02  1.70996435855E-02  1.75220047821E-02  1.79547983002E-02
  1.83982818182E-02  1.88527193792E-02  1.93183815478E-02  1.97955455720E-02
  2.02844955477E-02  2.07855225877E-02  2.12989249956E-02  2.18250084430E-02
  2.23640861516E-02  2.29164790795E-02  2.34825161128E-02  2.40625342607E-02
  2.46568788570E-02  2.52659037648E-02  2.58899715877E-02  2.65294538860E-02
  2.71847313969E-02  2.78561942624E-02  2.85442422607E-02  2.92492850446E-02
  2.99717423852E-02  3.07120444221E-02  3.14706319193E-02  3.22479565277E-02
  3.30444810540E-02  3.38606797360E-02  3.46970385255E-02  3.55540553770E-02
  3.64322405449E-02  3.73321168863E-02  3.82542201734E-02  3.91990994117E-02
  4.01673171672E-02  4.11594499012E-02  4.21760883137E-02  4.32178376951E-02
  4.42853182862E-02  4.53791656478E-02  4.65000310393E-02  4.76485818060E-02
  4.88255017766E-02  5.00314916705E-02  5.12672695148E-02  5.25335710718E-02
  5.38311502772E-02  5.51607796891E-02  5.65232509474E-02  5.79193752458E-02
  5.93499838144E-02  6.08159284146E-02  6.23180818464E-02  6.38573384681E-02
  6.54346147282E-02  6.70508497120E-02  6.87070056999E-02  7.04040687407E-02
  7.21430492386E-02  7.39249825548E-02  7.57509296239E-02  7.76219775856E-02
  7.95392404319E-02  8.15038596706E-02  8.35170050045E-02  8.55798750281E-02
  8.76936979413E-02  8.98597322804E-02  9.20792676677E-02  9.43536255791E-02
  9.66841601309E-02  9.90722588862E-02  1.01519343681E-01  1.04026871470E-01
  1.06596335195E-01  1.09229264674E-01  1.11927227512E-01  1.14691830031E-01
  1.17524718233E-01  1.20427578773E-01  1.23402139969E-01  1.26450172826E-01
  1.29573492095E-01  1.32773957350E-01  1.36053474096E-01  1.39413994907E-01
  1.42857520581E-01  1.46386101339E-01  1.50001838042E-01  1.53706883442E-01
  1.57503443463E-01  1.61393778516E-01  1.65380204846E-01  1.69465095905E-01
  1.73650883774E-01  1.77940060603E-01  1.82335180100E-01  1.86838859049E-01
  1.91453778867E-01  1.96182687205E-01  2.01028399579E-01  2.05993801049E-01
  2.11081847935E-01  2.16295569579E-01  2.21638070147E-01  2.27112530480E-01
  2.32722209983E-01  2.38470448570E-01  2.44360668649E-01  2.50396377165E-01
  2.56581167681E-01  2.62918722522E-01  2.69412814969E-01  2.76067311499E-01
  2.82886174093E-01  2.89873462593E-01  2.97033337119E-01  3.04370060545E-01
  3.11888001041E-01  3.19591634667E-01  3.27485548043E-01  3.35574441080E-01
  3.43863129774E-01  3.52356549080E-01  3.61059755842E-01  3.69977931811E-01
  3.79116386727E-01  3.88480561479E-01  3.98076031348E-01  4.07908509322E-01
  4.17983849502E-01  4.28308050585E-01  4.38887259434E-01  4.49727774742E-01
  4.60836050779E-01  4.72218701233E-01  4.83882503153E-01  4.95834400981E-01
  5.08081510685E-01  5.20631123999E-01  5.33490712762E-01  5.46667933367E-01
  5.60170631321E-01  5.74006845915E-01  5.88184815009E-01  6.02712979940E-01
  6.17599990544E-01  6.32854710311E-01  6.48486221656E-01  6.64503831330E-01
  6.80917075964E-01  6.97735727741E-01  7.14969800216E-01  7.32629554281E-01
  7.50725504272E-01  7.69268424227E-01  7.88269354306E-01  8.07739607357E-01
  8.27690775659E-01  8.48134737818E-01  8.69083665842E-01  8.90550032388E-01
  9.12546618188E-01  9.35086519657E-01  9.58183156693E-01  9.81850280663E-01
  1.00610198260E+00  1.03095270157E+00  1.05641723329E+00  1.08251073896E+00
  1.10924875421E+00  1.13664719844E+00  1.16472238424E+00  1.19349102713E+00
  1.22297025550E+00  1.25317762081E+00  1.28413110804E+00  1.31584914641E+00
  1.34835062033E+00  1.38165488065E+00  1.41578175620E+00  1.45075156558E+00
  1.48658512925E+00  1.52330378195E+00  1.56092938536E+00  1.59948434118E+00
  1.63899160440E+00  1.67947469703E+00  1.72095772205E+00  1.76346537778E+00
  1.80702297262E+00  1.85165644004E+00  1.89739235411E+00  1.94425794526E+00
  1.99228111650E+00  2.04149046008E+00  2.09191527444E+00  2.14358558172E+00
  2.19653214559E+00  2.25078648959E+00  2.30638091588E+00  2.36334852450E+00
  2.42172323306E+00  2.48153979691E+00  2.54283382990E+00  2.60564182550E+00
  2.67000117859E+00  2.73595020770E+00  2.80352817783E+00  2.87277532382E+00
  2.94373287432E+00  3.01644307631E+00  3.09094922030E+00  3.16729566604E+00
  3.24552786899E+00  3.32569240736E+00  3.40783700982E+00  3.49201058396E+00
  3.57826324538E+00  3.66664634755E+00  3.75721251233E+00  3.85001566138E+00
  3.94511104822E+00  4.04255529111E+00  4.14240640680E+00  4.24472384505E+00
  4.34956852402E+00  4.45700286657E+00  4.56709083737E+00  4.67989798105E+00
  4.79549146119E+00  4.91394010028E+00  5.03531442075E+00  5.15968668695E+00
  5.28713094811E+00  5.41772308253E+00  5.55154084267E+00  5.68866390148E+00
  5.82917389985E+00  5.97315449518E+00  6.12069141121E+00  6.27187248907E+00
  6.42678773954E+00  6.58552939671E+00  6.74819197281E+00  6.91487231454E+00
  7.08566966071E+00  7.26068570133E+00  7.44002463815E+00  7.62379324671E+00
  7.81210093991E+00  8.00505983312E+00  8.20278481100E+00  8.40539359583E+00
  8.61300681765E+00  8.82574808604E+00  9.04374406377E+00  9.26712454215E+00
  9.49602251834E+00  9.73057427454E+00  9.97091945912E+00  1.02172011698E+01
  1.04695660387E+01  1.07281643198E+01  1.09931499785E+01  1.12646807830E+01
  1.15429183983E+01  1.18280284828E+01  1.21201807863E+01  1.24195492517E+01
  1.27263121182E+01  1.30406520275E+01  1.33627561326E+01  1.36928162091E+01
  1.40310287695E+01  1.43775951801E+01  1.47327217810E+01  1.50966200090E+01
  1.54695065232E+01  1.58516033343E+01  1.62431379367E+01  1.66443434437E+01
  1.70554587268E+01  1.74767285574E+01  1.79084037527E+01  1.83507413254E+01
  1.88040046362E+01  1.92684635507E+01  1.97443946004E+01  2.02320811470E+01
  2.07318135513E+01  2.12438893460E+01  2.17686134129E+01  2.23062981642E+01
  2.28572637288E+01  2.34218381429E+01  2.40003575451E+01  2.45931663764E+01
  2.52006175859E+01  2.58230728403E+01  2.64609027395E+01  2.71144870371E+01
  2.77842148669E+01  2.84704849742E+01  2.91737059530E+01  2.98942964901E+01
  3.06326856134E+01  3.13893129480E+01  3.21646289778E+01  3.29590953136E+01
  3.37731849678E+01  3.46073826365E+01  3.54621849877E+01  3.63381009569E+01
  3.72356520505E+01  3.81553726561E+01  3.90978103607E+01  4.00635262767E+01
  4.10530953757E+01  4.20671068315E+01  4.31061643702E+01  4.41708866302E+01
  4.52619075299E+01  4.63798766459E+01  4.75254595991E+01  4.86993384512E+01
  4.99022121109E+01  5.11347967500E+01  5.23978262298E+01  5.36920525376E+01
  5.50182462353E+01  5.63771969173E+01  5.77697136812E+01  5.91966256091E+01
  6.06587822617E+01  6.21570541835E+01  6.36923334219E+01  6.52655340574E+01
  6.68775927486E+01  6.85294692895E+01  7.02221471809E+01  7.19566342163E+01
  7.37339630814E+01  7.55551919696E+01  7.74214052112E+01
  </PP_R>
  <PP_RAB>
  2.17856132353E-05  2.23237178822E-05  2.28751137139E-05  2.34401290226E-05
  2.40191002095E-05  2.46123719847E-05  2.52202975727E-05  2.58432389227E-05
  2.64815669241E-05  2.71356616272E-05  2.78059124693E-05  2.84927185073E-05
  2.91964886545E-05  2.99176419242E-05  3.06566076798E-05  3.14138258895E-05
  3.21897473889E-05  3.29848341494E-05  3.37995595529E-05  3.46344086739E-05
  3.54898785681E-05  3.63664785688E-05  3.72647305894E-05  3.81851694350E-05
  3.91283431200E-05  4.00948131951E-05  4.10851550810E-05  4.20999584115E-05
  4.31398273842E-05  4.42053811206E-05  4.52972540343E-05  4.64160962090E-05
  4.75625737853E-05  4.87373693578E-05  4.99411823810E-05  5.11747295858E-05
  5.24387454065E-05  5.37339824181E-05  5.50612117838E-05  5.64212237149E-05
  5.78148279406E-05  5.92428541908E-05  6.07061526893E-05  6.22055946607E-05
  6.37420728488E-05  6.53165020482E-05  6.69298196488E-05  6.85829861941E-05
  7.02769859531E-05  7.20128275061E-05  7.37915443455E-05  7.56141954909E-05
  7.74818661195E-05  7.93956682126E-05  8.13567412175E-05  8.33662527256E-05
  8.54253991679E-05  8.75354065273E-05  8.96975310686E-05  9.19130600860E-05
  9.41833126701E-05  9.65096404930E-05  9.88934286132E-05  1.01336096300E-04
  1.03839097879E-04  1.06403923596E-04  1.09032100509E-04  1.11725193392E-04
  1.14484805668E-04  1.17312580368E-04  1.20210201103E-04  1.23179393071E-04
  1.26221924080E-04  1.29339605604E-04  1.32534293863E-04  1.35807890921E-04
  1.39162345827E-04  1.42599655769E-04  1.46121867266E-04  1.49731077388E-04
  1.53429434999E-04  1.57219142044E-04  1.61102454852E-04  1.65081685487E-04
  1.69159203119E-04  1.73337435436E-04  1.77618870091E-04  1.82006056182E-04
  1.86501605770E-04  1.91108195432E-04  1.95828567860E-04  2.00665533486E-04
  2.05621972163E-04  2.10700834875E-04  2.15905145497E-04  2.21238002590E-04
  2.26702581254E-04  2.32302135011E-04  2.38039997746E-04  2.43919585690E-04
  2.49944399457E-04  2.56118026124E-04  2.62444141369E-04  2.68926511661E-04
  2.75568996499E-04  2.82375550712E-04  2.89350226815E-04  2.96497177417E-04
  3.03820657699E-04  3.11325027944E-04  3.19014756135E-04  3.26894420611E-04
  3.34968712800E-04  3.43242440007E-04  3.51720528275E-04  3.60408025323E-04
  3.69310103549E-04  3.78432063106E-04  3.87779335065E-04  3.97357484641E-04
  4.07172214512E-04  4.17229368210E-04  4.27534933605E-04  4.38095046465E-04
  4.48915994113E-04  4.60004219167E-04  4.71366323381E-04  4.83009071568E-04
  4.94939395636E-04  5.07164398708E-04  5.19691359356E-04  5.32527735932E-04
  5.45681171010E-04  5.59159495934E-04  5.72970735483E-04  5.87123112650E-04
  6.01625053532E-04  6.16485192354E-04  6.31712376605E-04  6.47315672308E-04
  6.63304369414E-04  6.79687987338E-04  6.96476280625E-04  7.13679244757E-04
  7.31307122102E-04  7.49370408018E-04  7.67879857096E-04  7.86846489567E-04
  8.06281597859E-04  8.26196753326E-04  8.46603813133E-04  8.67514927318E-04
  8.88942546022E-04  9.10899426909E-04  9.33398642754E-04  9.56453589230E-04
  9.80077992884E-04  1.00428591931E-03  1.02909178151E-03  1.05451034852E-03
  1.08055675413E-03  1.10724650595E-03  1.13459549465E-03  1.16262000337E-03
  1.19133671745E-03  1.22076273437E-03  1.25091557391E-03  1.28181318859E-03
  1.31347397435E-03  1.34591678151E-03  1.37916092602E-03  1.41322620089E-03
  1.44813288805E-03  1.48390177038E-03  1.52055414411E-03  1.55811183147E-03
  1.59659719371E-03  1.63603314439E-03  1.67644316306E-03  1.71785130919E-03
  1.76028223653E-03  1.80376120777E-03  1.84831410960E-03  1.89396746811E-03
  1.94074846457E-03  1.98868495164E-03  2.03780546995E-03  2.08813926506E-03
  2.13971630490E-03  2.19256729764E-03  2.24672370989E-03  2.30221778552E-03
  2.35908256482E-03  2.41735190417E-03  2.47706049621E-03  2.53824389046E-03
  2.60093851456E-03  2.66518169587E-03  2.73101168376E-03  2.79846767234E-03
  2.86758982385E-03  2.93841929250E-03  3.01099824903E-03  3.08536990578E-03
  3.16157854245E-03  3.23966953245E-03  3.31968936990E-03  3.40168569734E-03
  3.48570733406E-03  3.57180430521E-03  3.66002787155E-03  3.75043055998E-03
  3.84306619481E-03  3.93798992982E-03  4.03525828109E-03  4.13492916063E-03
  4.23706191090E-03  4.34171734010E-03  4.44895775840E-03  4.55884701503E-03
  4.67145053630E-03  4.78683536455E-03  4.90507019805E-03  5.02622543194E-03
  5.15037320011E-03  5.27758741816E-03  5.40794382738E-03  5.54152003992E-03
  5.67839558491E-03  5.81865195585E-03  5.96237265916E-03  6.10964326384E-03
  6.26055145246E-03  6.41518707334E-03  6.57364219405E-03  6.73601115624E-03
  6.90239063180E-03  7.07287968041E-03  7.24757980851E-03  7.42659502978E-03
  7.61003192702E-03  7.79799971562E-03  7.99061030859E-03  8.18797838321E-03
  8.39022144928E-03  8.59745991908E-03  8.80981717908E-03  9.02741966340E-03
  9.25039692909E-03  9.47888173323E-03  9.71301011205E-03  9.95292146181E-03
  1.01987586219E-02  1.04506679599E-02  1.07087994585E-02  1.09733068051E-02
  1.12443474832E-02  1.15220828660E-02  1.18066783128E-02  1.20983032672E-02
  1.23971313579E-02  1.27033405024E-02  1.30171130128E-02  1.33386357042E-02
  1.36681000061E-02  1.40057020763E-02  1.43516429175E-02  1.47061284976E-02
  1.50693698715E-02  1.54415833073E-02  1.58229904150E-02  1.62138182783E-02
  1.66142995897E-02  1.70246727896E-02  1.74451822075E-02  1.78760782080E-02
  1.83176173398E-02  1.87700624881E-02  1.92336830315E-02  1.97087550024E-02
  2.01955612510E-02  2.06943916139E-02  2.12055430867E-02  2.17293200010E-02
  2.22660342050E-02  2.28160052499E-02  2.33795605795E-02  2.39570357258E-02
  2.45487745083E-02  2.51551292386E-02  2.57764609308E-02  2.64131395158E-02
  2.70655440618E-02  2.77340630002E-02  2.84190943563E-02  2.91210459869E-02
  2.98403358228E-02  3.05773921176E-02  3.13326537029E-02  3.21065702493E-02
  3.28996025345E-02  3.37122227171E-02  3.45449146182E-02  3.53981740093E-02
  3.62725089073E-02  3.71684398773E-02  3.80865003423E-02  3.90272369007E-02
  3.99912096522E-02  4.09789925306E-02  4.19911736461E-02  4.30283556352E-02
  4.40911560194E-02  4.51802075730E-02  4.62961587001E-02  4.74396738200E-02
  4.86114337633E-02  4.98121361773E-02  5.10424959409E-02  5.23032455906E-02
  5.35951357567E-02  5.49189356099E-02  5.62754333195E-02  5.76654365224E-02
  5.90897728045E-02  6.05492901928E-02  6.20448576606E-02  6.35773656448E-02
  6.51477265762E-02  6.67568754227E-02  6.84057702456E-02  7.00953927707E-02
  7.18267489721E-02  7.36008696717E-02  7.54188111526E-02  7.72816557881E-02
  7.91905126860E-02  8.11465183494E-02  8.31508373526E-02  8.52046630352E-02
  8.73092182122E-02  8.94657559020E-02  9.16755600728E-02  9.39399464066E-02
  9.62602630829E-02  9.86378915810E-02  1.01074247503E-01  1.03570781416E-01
  1.06128979717E-01  1.08750365516E-01  1.11436499545E-01  1.14188981083E-01
  1.17009448916E-01  1.19899582304E-01  1.22861101987E-01  1.25895771206E-01
  1.29005396755E-01  1.32191830055E-01  1.35456968257E-01  1.38802755373E-01
  1.42231183431E-01  1.45744293662E-01  1.49344177715E-01  1.53032978905E-01
  1.56812893484E-01  1.60686171953E-01  1.64655120400E-01  1.68722101874E-01
  1.72889537790E-01  1.77159909374E-01  1.81535759135E-01  1.86019692386E-01
  1.90614378788E-01  1.95322553944E-01  2.00147021026E-01  2.05090652446E-01
  2.10156391561E-01  2.15347254433E-01  2.20666331617E-01  2.26116790008E-01
  2.31701874721E-01  2.37424911027E-01  2.43289306329E-01  2.49298552195E-01
  2.55456226435E-01  2.61765995228E-01  2.68231615310E-01  2.74856936208E-01
  2.81645902532E-01  2.88602556325E-01  2.95731039466E-01  3.03035596141E-01
  3.10520575365E-01  3.18190433577E-01  3.26049737286E-01  3.34103165797E-01
  3.42355513993E-01  3.50811695188E-01  3.59476744059E-01  3.68355819638E-01
  3.77454208383E-01  3.86777327330E-01  3.96330727315E-01  4.06120096279E-01
  4.16151262657E-01  4.26430198845E-01  4.36963024757E-01  4.47756011468E-01
  4.58815584951E-01  4.70148329900E-01  4.81760993648E-01  4.93660490191E-01
  5.05853904299E-01  5.18348495735E-01  5.31151703580E-01  5.44271150658E-01
  5.57714648079E-01  5.71490199887E-01  5.85606007824E-01  6.00070476218E-01
  6.14892216980E-01  6.30080054740E-01  6.45643032092E-01  6.61590414984E-01
  6.77931698234E-01  6.94676611181E-01  7.11835123477E-01  7.29417451027E-01
  7.47434062067E-01  7.65895683400E-01  7.84813306780E-01  8.04198195458E-01
  8.24061890885E-01  8.44416219590E-01  8.65273300214E-01  8.86645550730E-01
  9.08545695833E-01  9.30986774520E-01  9.53982147850E-01  9.77545506902E-01
  1.00169088092E+00  1.02643264568E+00  1.05178553203E+00  1.07776463467E+00
  1.10438542115E+00  1.13166374105E+00  1.15961583545E+00  1.18825834659E+00
  1.21760832775E+00  1.24768325345E+00  1.27850102981E+00  1.31008000524E+00
  1.34243898137E+00  1.37559722421E+00  1.40957447565E+00  1.44439096520E+00
  1.48006742204E+00  1.51662508736E+00  1.55408572702E+00  1.59247164448E+00
  1.63180569410E+00  1.67211129474E+00  1.71341244372E+00  1.75573373108E+00
  1.79910035424E+00  1.84353813299E+00  1.88907352487E+00
  </PP_RAB>
</PP_MESH>


<PP_LOCAL>
 -4.70250763578E+01 -4.70785521334E+01 -4.71344916715E+01 -4.71929977266E+01
 -4.72565702200E+01 -4.73229572529E+01 -4.73922720395E+01 -4.74646327014E+01
 -4.75401589834E+01 -4.76189739474E+01 -4.77012032810E+01 -4.77869752161E+01
 -4.78764203512E+01 -4.79696714391E+01 -4.80668631398E+01 -4.81681317358E+01
 -4.82736148078E+01 -4.83834508666E+01 -4.84977789388E+01 -4.86167381030E+01
 -4.87404669738E+01 -4.88691031300E+01 -4.90027824845E+01 -4.91416385923E+01
 -4.92858018950E+01 -4.94353988983E+01 -4.95905512808E+01 -4.97513749317E+01
 -4.99179789168E+01 -5.00904643711E+01 -5.02689233180E+01 -5.04534374153E+01
 -5.06440766290E+01 -5.08408978375E+01 -5.10439433685E+01 -5.12532394729E+01
 -5.14687947413E+01 -5.16905984689E+01 -5.19186189778E+01 -5.21528019048E+01
 -5.23930684662E+01 -5.26393137129E+01 -5.28914047872E+01 -5.31491791997E+01
 -5.34124431412E+01 -5.36809698495E+01 -5.39544980497E+01 -5.42327304902E+01
 -5.45153325950E+01 -5.48019312574E+01 -5.50921137959E+01 -5.53854270974E+01
 -5.56813769722E+01 -5.59794277409E+01 -5.62790020785E+01 -5.65794811359E+01
 -5.68802049560E+01 -5.71804732060E+01 -5.74795462362E+01 -5.77766464813E+01
 -5.80709602111E+01 -5.83616396383E+01 -5.86478053842E+01 -5.89285493037E+01
 -5.92029376640E+01 -5.94700146706E+01 -5.97288063302E+01 -5.99783246370E+01
 -6.02175720696E+01 -6.04455463783E+01 -6.06612456485E+01 -6.08636736185E+01
 -6.10518452351E+01 -6.12247924261E+01 -6.13815700726E+01 -6.15212621632E+01
 -6.16429881104E+01 -6.17459092148E+01 -6.18292352548E+01 -6.18922311851E+01
 -6.19342239181E+01 -6.19546091621E+01 -6.19528582812E+01 -6.19285251356E+01
 -6.18812528471E+01 -6.18107804276E+01 -6.17169491878E+01 -6.15997088332E+01
 -6.14591231350E+01 -6.12953750483E+01 -6.11087711345E+01 -6.08997451319E+01
 -6.06688605105E+01 -6.04168118389E+01 -6.01444247982E+01 -5.98526546829E+01
 -5.95425832478E+01 -5.92154137879E+01 -5.88724643712E+01 -5.85151591911E+01
 -5.81450180524E+01 -5.77636440663E+01 -5.73727096851E+01 -5.69739412701E+01
 -5.65691024421E+01 -5.61599765149E+01 -5.57483483560E+01 -5.53359860466E+01
 -5.49246227325E+01 -5.45159390580E+01 -5.41115465604E+01 -5.37129723794E+01
 -5.33216455875E+01 -5.29388854030E+01 -5.25658914794E+01 -5.22037364069E+01
 -5.18533604885E+01 -5.15155687900E+01 -5.11910304032E+01 -5.08802798020E+01
 -5.05837201282E+01 -5.03016282057E+01 -5.00341610522E+01 -4.97813636426E+01
 -4.95431776695E+01 -4.93194510474E+01 -4.91099479139E+01 -4.89143588980E+01
 -4.87323114432E+01 -4.85633799964E+01 -4.84070958978E+01 -4.82629568357E+01
 -4.81304357517E+01 -4.80089891119E+01 -4.78980644817E+01 -4.77971073632E+01
 -4.77055672759E+01 -4.76229030790E+01 -4.75485875481E+01 -4.74821112311E+01
 -4.74229856213E+01 -4.73707456892E+01 -4.73249518252E+01 -4.72851912452E+01
 -4.72510789143E+01 -4.72222580476E+01 -4.71984002393E+01 -4.71792052789E+01
 -4.71644007010E+01 -4.71537411202E+01 -4.71470073930E+01 -4.71440056485E+01
 -4.71445662228E+01 -4.71485425290E+01 -4.71558098915E+01 -4.71662643663E+01
 -4.71798215678E+01 -4.71964155193E+01 -4.72159975367E+01 -4.72385351581E+01
 -4.72640111244E+01 -4.72924224144E+01 -4.73237793377E+01 -4.73581046842E+01
 -4.73954329282E+01 -4.74358094842E+01 -4.74792900078E+01 -4.75259397368E+01
 -4.75758328642E+01 -4.76290519338E+01 -4.76856872498E+01 -4.77458362887E+01
 -4.78096031016E+01 -4.78770976946E+01 -4.79484353729E+01 -4.80237360343E+01
 -4.81031233946E+01 -4.81867241299E+01 -4.82746669154E+01 -4.83670813422E+01
 -4.84640966921E+01 -4.85658405473E+01 -4.86724372146E+01 -4.87840059384E+01
 -4.89006588825E+01 -4.90224988543E+01 -4.91496167504E+01 -4.92820887027E+01
 -4.94199729051E+01 -4.95633061067E+01 -4.97120997598E+01 -4.98663358207E+01
 -5.00259622049E+01 -5.01908879135E+01 -5.03609778579E+01 -5.05360474233E+01
 -5.07158568330E+01 -5.09001053909E+01 -5.10884257056E+01 -5.12803780193E+01
 -5.14754447928E+01 -5.16730257195E+01 -5.18724333664E+01 -5.20728896568E+01
 -5.22735234245E+01 -5.24733692708E+01 -5.26713679443E+01 -5.28663684342E+01
 -5.30571319132E+01 -5.32423375765E+01 -5.34205903023E+01 -5.35904298862E+01
 -5.37503413918E+01 -5.38987659007E+01 -5.40341106650E+01 -5.41547573836E+01
 -5.42590671005E+01 -5.43453801116E+01 -5.44120093681E+01 -5.44572262433E+01
 -5.44792382519E+01 -5.44761593736E+01 -5.44459749363E+01 -5.43865043704E+01
 -5.42953662633E+01 -5.41699506889E+01 -5.40074034658E+01 -5.38046256005E+01
 -5.35582886275E+01 -5.32648629447E+01 -5.29206517836E+01 -5.25218186859E+01
 -5.20643924706E+01 -5.15442331367E+01 -5.09569492788E+01 -5.02977781632E+01
 -4.95614777249E+01 -4.87423307753E+01 -4.78344031488E+01 -4.68321878039E+01
 -4.57316669474E+01 -4.45316429060E+01 -4.32350140028E+01 -4.18496307474E+01
 -4.03885139699E+01 -3.88694588501E+01 -3.73142196302E+01 -3.57474753845E+01
 -3.41956653973E+01 -3.26856733907E+01 -3.12433171260E+01 -2.98916699549E+01
 -2.86493581197E+01 -2.75290821113E+01 -2.65366449505E+01 -2.56706955775E+01
 -2.49232259056E+01 -2.42806828071E+01 -2.37254743524E+01 -2.32376822053E+01
 -2.27968568826E+01 -2.23837817973E+01 -2.19820412433E+01 -2.15791824545E+01
 -2.11672853793E+01 -2.07428580817E+01 -2.03061245448E+01 -1.98599081381E+01
 -1.94083886044E+01 -1.89560000819E+01 -1.85066526801E+01 -1.80633378180E+01
 -1.76280650054E+01 -1.72020111017E+01 -1.67857533977E+01 -1.63794910134E+01
 -1.59832081035E+01 -1.55967732760E+01 -1.52199914189E+01 -1.48526285211E+01
 -1.44944249887E+01 -1.41451057866E+01 -1.38043903276E+01 -1.34720021140E+01
 -1.31476770732E+01 -1.28311694931E+01 -1.25222549186E+01 -1.22207299983E+01
 -1.19264098615E+01 -1.16391240127E+01 -1.13587118544E+01 -1.10850187824E+01
 -1.08178934266E+01 -1.05571861673E+01 -1.03027487061E+01 -1.00544342910E+01
 -9.81209820052E+00 -9.57559821250E+00 -9.34479493294E+00 -9.11955197125E+00
 -8.89973600189E+00 -8.68521675994E+00 -8.47586700487E+00 -8.27156247128E+00
 -8.07218181470E+00 -7.87760655534E+00 -7.68772102093E+00 -7.50241228890E+00
 -7.32157012829E+00 -7.14508694157E+00 -6.97285770653E+00 -6.80477991858E+00
 -6.64075353342E+00 -6.48068091047E+00 -6.32446675696E+00 -6.17201807293E+00
 -6.02324409719E+00 -5.87805625424E+00 -5.73636810227E+00 -5.59809528231E+00
 -5.46315546833E+00 -5.33146831859E+00 -5.20295542802E+00 -5.07754028164E+00
 -4.95514820915E+00 -4.83570634045E+00 -4.71914356228E+00 -4.60539047583E+00
 -4.49437935534E+00 -4.38604410773E+00 -4.28032023316E+00 -4.17714478653E+00
 -4.07645633998E+00 -3.97819494629E+00 -3.88230210312E+00 -3.78872071819E+00
 -3.69739507532E+00 -3.60827080124E+00 -3.52129483324E+00 -3.43641538760E+00
 -3.35358192873E+00 -3.27274513914E+00 -3.19385689006E+00 -3.11687021276E+00
 -3.04173927062E+00 -2.96841933183E+00 -2.89686674275E+00 -2.82703890195E+00
 -2.75889423484E+00 -2.69239216894E+00 -2.62749310975E+00 -2.56415841716E+00
 -2.50235038249E+00 -2.44203220601E+00 -2.38316797508E+00 -2.32572264275E+00
 -2.26966200688E+00 -2.21495268980E+00 -2.16156211845E+00 -2.10945850493E+00
 -2.05861082761E+00 -2.00898881266E+00 -1.96056291600E+00 -1.91330430571E+00
 -1.86718484486E+00 -1.82217707479E+00 -1.77825419869E+00 -1.73539006570E+00
 -1.69355915531E+00 -1.65273656219E+00 -1.61289798132E+00 -1.57401969355E+00
 -1.53607855148E+00 -1.49905196565E+00 -1.46291789111E+00 -1.42765481428E+00
 -1.39324174019E+00 -1.35965817988E+00 -1.32688413832E+00 -1.29490010240E+00
 -1.26368702940E+00 -1.23322633558E+00 -1.20349988517E+00 -1.17448997954E+00
 -1.14617934667E+00 -1.11855113089E+00 -1.09158888279E+00 -1.06527654950E+00
 -1.03959846507E+00 -1.01453934119E+00 -9.90084258034E-01 -9.66218655441E-01
 -9.42928324201E-01 -9.20199397612E-01 -8.98018343222E-01 -8.76371954773E-01
 -8.55247344339E-01 -8.34631934649E-01 -8.14513451606E-01 -7.94879916974E-01
 -7.75719641246E-01 -7.57021216690E-01 -7.38773510550E-01 -7.20965658424E-01
 -7.03587057792E-01 -6.86627360528E-01 -6.70076471678E-01 -6.53924535647E-01
 -6.38161935832E-01 -6.22779287432E-01 -6.07767431865E-01 -5.93117431312E-01
 -5.78820563396E-01 -5.64868315991E-01 -5.51252382152E-01 -5.37964655169E-01
 -5.24997223743E-01 -5.12342367271E-01 -4.99992551255E-01 -4.87940422812E-01
 -4.76178806296E-01 -4.64700699030E-01 -4.53499267132E-01 -4.42567841448E-01
 -4.31899913583E-01 -4.21489132022E-01 -4.11329298352E-01 -4.01414363572E-01
 -3.91738424487E-01 -3.82295720199E-01 -3.73080628670E-01 -3.64087663385E-01
 -3.55311470074E-01 -3.46746823533E-01 -3.38388624507E-01 -3.30231896660E-01
 -3.22271783605E-01 -3.14503546018E-01 -3.06922558815E-01 -2.99524308398E-01
 -2.92304389966E-01 -2.85258504895E-01 -2.78382458178E-01 -2.71672155927E-01
 -2.65123602934E-01 -2.58732900297E-01 -2.52496243092E-01 -2.46409918115E-01
 -2.40470301664E-01 -2.34673857386E-01 -2.29017134172E-01 -2.23496764099E-01
 -2.18109460427E-01 -2.12852015640E-01 -2.07721299542E-01 -2.02714257384E-01
 -1.97827908055E-01 -1.93059342300E-01 -1.88405720992E-01 -1.83864273438E-01
 -1.79432295733E-01 -1.75107149149E-01 -1.70886258563E-01 -1.66767110923E-01
 -1.62747253755E-01 -1.58824293701E-01 -1.54995895092E-01
</PP_LOCAL>


<PP_NONLOCAL>
  <PP_BETA>
    1    0             Beta    L
   384
  3.25560681594E-02  3.33602805012E-02  3.41843617762E-02  3.50288030562E-02
  3.58941076478E-02  3.67807913479E-02  3.76893825738E-02  3.86204228594E-02
  3.95744671345E-02  4.05520840634E-02  4.15538563860E-02  4.25803812677E-02
  4.36322706573E-02  4.47101516545E-02  4.58146668868E-02  4.69464748948E-02
  4.81062505283E-02  4.92946853519E-02  5.05124880605E-02  5.17603849061E-02
  5.30391201344E-02  5.43494564328E-02  5.56921753899E-02  5.70680779664E-02
  5.84779849779E-02  5.99227375895E-02  6.14031978240E-02  6.29202490820E-02
  6.44747966750E-02  6.60677683733E-02  6.77001149665E-02  6.93728108390E-02
  7.10868545597E-02  7.28432694873E-02  7.46431043902E-02  7.64874340833E-02
  7.83773600802E-02  8.03140112624E-02  8.22985445661E-02  8.43321456855E-02
  8.64160297960E-02  8.85514422941E-02  9.07396595576E-02  9.29819897254E-02
  9.52797734970E-02  9.76343849530E-02  1.00047232397E-01  1.02519759220E-01
  1.05053444784E-01  1.07649805337E-01  1.10310394940E-01  1.13036806429E-01
  1.15830672398E-01  1.18693666207E-01  1.21627503016E-01  1.24633940852E-01
  1.27714781698E-01  1.30871872617E-01  1.34107106897E-01  1.37422425239E-01
  1.40819816965E-01  1.44301321271E-01  1.47869028498E-01  1.51525081456E-01
  1.55271676770E-01  1.59111066267E-01  1.63045558406E-01  1.67077519740E-01
  1.71209376424E-01  1.75443615764E-01  1.79782787807E-01  1.84229506974E-01
  1.88786453751E-01  1.93456376410E-01  1.98242092796E-01  2.03146492152E-01
  2.08172537006E-01  2.13323265107E-01  2.18601791421E-01  2.24011310183E-01
  2.29555097012E-01  2.35236511084E-01  2.41058997377E-01  2.47026088979E-01